 Gaussian 09, Revision D.01,
 Gaussian 09:  ES64L-G09RevD.01 24-Apr-2013

 ----------------------------------------------------------------------
 #PBE1PBE/6-31+G(d) density=current FormCheck=All SCRF=(PCM,Read,G03Def
 aults) #Pop=ChelpG nosymm
 ----------------------------------------------------------------------

 ----------------------------
 Charge density of molecule 1
 ----------------------------
 Symbolic Z-matrix:
 Charge =  0 Multiplicity = 1

                          Input orientation:
 ---------------------------------------------------------------------
 Center     Atomic      Atomic             Coordinates (Angstroms)
 Number     Number       Type             X           Y           Z
 ---------------------------------------------------------------------
      1          6           0       -2.506084    2.181826   -0.131759
      2          6           0       -1.809207    0.983127   -0.460586
      3          6           0       -2.290014    0.219875   -1.544215
      4          6           0       -3.417109    0.607503   -2.246547
      5          6           0       -4.119035    1.769328   -1.906762
      6          6           0       -3.651035    2.544232   -0.861638
      7          6           0       -2.029429    3.051834    0.947044
      8          6           0       -0.021231   -0.613158    0.191449
      9          6           0        1.379329   -0.613158    0.191449
     10          6           0        2.076159   -1.816398    0.191449
     11          6           0        1.399177   -3.036051    0.172538
     12          6           0        0.008070   -3.033908    0.173494
     13          6           0       -0.701341   -1.837144    0.194601
     14          6           0        3.577948   -1.822946    0.233434
     15          9           0        4.107788   -0.615116   -0.027700
     16          9           0        4.099710   -2.688891   -0.658465
     17          9           0        4.038973   -2.199485    1.445761
     18          7           0       -0.691517    0.613785    0.244638
     19          8           0       -2.853692    4.077879    1.223614
     20          8           0       -0.991279    2.900979    1.580909
     21          1           0       -1.748432   -0.669569   -1.847980
     22          1           0       -3.749544   -0.002191   -3.083428
     23          1           0       -5.004919    2.065486   -2.460013
     24          1           0       -4.164530    3.459608   -0.587033
     25          1           0        1.914182    0.331706    0.181688
     26          1           0        1.952385   -3.970253    0.160540
     27          1           0       -0.533159   -3.976207    0.175726
     28          1           0       -1.786560   -1.847753    0.234920
     29          1           0       -0.338497    1.338155    0.867998
     30          1           0       -2.499325    4.559284    1.988467
 ---------------------------------------------------------------------

 SCF Done:  E(RPBE1PBE) =  -1043.20905337     A.U. after   15 cycles

 Alpha  occ. eigenvalues --  -24.83891 -24.83619 -24.83422 -19.28498 -19.23656
 Alpha  occ. eigenvalues --  -14.43746 -10.49742 -10.38606 -10.31006 -10.30257
 Alpha  occ. eigenvalues --  -10.27809 -10.26420 -10.26358 -10.26116 -10.26053
 Alpha  occ. eigenvalues --  -10.25941 -10.25842 -10.25782 -10.24891 -10.24365
 Alpha  occ. eigenvalues --   -1.35990  -1.27142  -1.26691  -1.15282  -1.05961
 Alpha  occ. eigenvalues --   -0.99854  -0.91090  -0.88713  -0.82182  -0.80697
 Alpha  occ. eigenvalues --   -0.79805  -0.76088  -0.73661  -0.69510  -0.66888
 Alpha  occ. eigenvalues --   -0.66308  -0.63642  -0.62694  -0.62025  -0.61456
 Alpha  occ. eigenvalues --   -0.59337  -0.55867  -0.54144  -0.53329  -0.52536
 Alpha  occ. eigenvalues --   -0.51543  -0.50192  -0.49627  -0.49029  -0.48267
 Alpha  occ. eigenvalues --   -0.47722  -0.47035  -0.46319  -0.45849  -0.45286
 Alpha  occ. eigenvalues --   -0.44660  -0.43567  -0.42942  -0.42384  -0.41836
 Alpha  occ. eigenvalues --   -0.39977  -0.39700  -0.39022  -0.37962  -0.37126
 Alpha  occ. eigenvalues --   -0.35167  -0.34399  -0.31079  -0.28960  -0.28356
 Alpha  occ. eigenvalues --   -0.28191  -0.22140
 Alpha virt. eigenvalues --   -0.05686  -0.03743  -0.02544   0.00653   0.00933
 Alpha virt. eigenvalues --    0.01957   0.02552   0.03461   0.03800   0.04153
 Alpha virt. eigenvalues --    0.04540   0.05050   0.05417   0.05608   0.05859

 Mulliken charges:
               1
     1  C   -0.005254
     2  C   -0.242607
     3  C    0.046806
     4  C   -0.541920
     5  C   -0.452773
     6  C   -0.074406
     7  C    0.707193
     8  C    0.406919
     9  C   -0.791824
    10  C   -1.104564
    11  C    0.002386
    12  C   -0.450416
    13  C    0.580360
    14  C    1.428033
    15  F   -0.327517
    16  F   -0.283513
    17  F   -0.265300
    18  N   -0.491544
    19  O   -0.677210
    20  O   -0.564612
    21  H    0.247134
    22  H    0.241342
    23  H    0.238793
    24  H    0.260540
    25  H    0.264982
    26  H    0.260721
    27  H    0.246992
    28  H    0.259748
    29  H    0.507493
    30  H    0.574017
 Sum of Mulliken charges =   0.00000

 Dipole moment (field-independent basis, Debye):
    X=             -4.4434    Y=              0.0220    Z=             -0.7998  Tot=              4.5149
 Quadrupole moment (field-independent basis, Debye-Ang):
   XX=           -118.6364   YY=            -99.3120   ZZ=           -112.6448
   XY=              1.1446   XZ=              1.8658   YZ=              5.1018

 ESP charges:
               1
     1  C   -0.305853
     2  C    0.542987
     3  C   -0.272946
     4  C   -0.022082
     5  C   -0.226969
     6  C   -0.030072
     7  C    0.797544
     8  C    0.491966
     9  C   -0.264871
    10  C   -0.031881
    11  C   -0.193376
    12  C   -0.058637
    13  C   -0.211975
    14  C    0.674823
    15  F   -0.226742
    16  F   -0.243630
    17  F   -0.246523
    18  N   -0.884821
    19  O   -0.655302
    20  O   -0.663264
    21  H    0.116775
    22  H    0.119777
    23  H    0.131459
    24  H    0.133443
    25  H    0.160761
    26  H    0.152233
    27  H    0.122048
    28  H    0.130854
    29  H    0.480634
    30  H    0.483639
 Sum of ESP charges =   0.00000

 Normal termination of Gaussian 09 at Fri Oct 20 13:12:48 2017.
