 Gaussian 09, Revision D.01,
 Gaussian 09:  ES64L-G09RevD.01 24-Apr-2013

 ----------------------------------------------------------------------
 #PBE1PBE/6-31+G(d) density=current FormCheck=All SCRF=(PCM,Read,G03Def
 aults) #Pop=ChelpG nosymm
 ----------------------------------------------------------------------

 ----------------------------
 Charge density of molecule 1
 ----------------------------
 Symbolic Z-matrix:
 Charge =  0 Multiplicity = 1

                          Input orientation:
 ---------------------------------------------------------------------
 Center     Atomic      Atomic             Coordinates (Angstroms)
 Number     Number       Type             X           Y           Z
 ---------------------------------------------------------------------
      1          6           0       -2.437697    2.242389    0.116194
      2          6           0       -1.865308    0.963971    0.384773
      3          6           0       -2.480245    0.165417    1.370856
      4          6           0       -3.623981    0.589910    2.023806
      5          6           0       -4.209716    1.826119    1.731958
      6          6           0       -3.603774    2.639430    0.792219
      7          6           0       -1.806602    3.162851   -0.834726
      8          6           0       -0.069862   -0.662242   -0.206932
      9          6           0        1.331924   -0.662242   -0.206932
     10          6           0        2.030330   -1.863245   -0.206932
     11          6           0        1.356170   -3.085000   -0.192072
     12          6           0       -0.034158   -3.083897   -0.202477
     13          6           0       -0.746763   -1.888320   -0.223698
     14          6           0        3.532680   -1.869943   -0.194589
     15          9           0        4.017739   -2.374684    0.960131
     16          9           0        4.035003   -2.635969   -1.184894
     17          9           0        4.058600   -0.641617   -0.337932
     18          7           0       -0.729545    0.567369   -0.275527
     19          8           0       -2.493456    4.301972   -1.023063
     20          8           0       -0.751187    2.967550   -1.426893
     21          1           0       -2.030811   -0.782270    1.645033
     22          1           0       -4.061879   -0.052147    2.784486
     23          1           0       -5.110774    2.149580    2.243802
     24          1           0       -4.020674    3.614335    0.563257
     25          1           0        1.867202    0.282505   -0.202276
     26          1           0        1.911131   -4.018318   -0.186010
     27          1           0       -0.574419   -4.026641   -0.217453
     28          1           0       -1.830317   -1.905290   -0.287238
     29          1           0       -0.289181    1.312938   -0.813132
     30          1           0       -2.037978    4.856997   -1.675472
 ---------------------------------------------------------------------

 SCF Done:  E(RPBE1PBE) =  -1043.20886701     A.U. after   15 cycles

 Alpha  occ. eigenvalues --  -24.83915 -24.83528 -24.83444 -19.28503 -19.23672
 Alpha  occ. eigenvalues --  -14.43907 -10.49724 -10.38669 -10.31112 -10.30331
 Alpha  occ. eigenvalues --  -10.27787 -10.26485 -10.26347 -10.26071 -10.25993
 Alpha  occ. eigenvalues --  -10.25907 -10.25878 -10.25801 -10.24929 -10.24382
 Alpha  occ. eigenvalues --   -1.35977  -1.27138  -1.26664  -1.15288  -1.06007
 Alpha  occ. eigenvalues --   -0.99966  -0.91098  -0.88751  -0.82196  -0.80727
 Alpha  occ. eigenvalues --   -0.79872  -0.76101  -0.73659  -0.69633  -0.66954
 Alpha  occ. eigenvalues --   -0.66333  -0.63675  -0.62802  -0.62005  -0.61462
 Alpha  occ. eigenvalues --   -0.59330  -0.55914  -0.54232  -0.53379  -0.52540
 Alpha  occ. eigenvalues --   -0.51552  -0.50119  -0.49646  -0.48957  -0.48295
 Alpha  occ. eigenvalues --   -0.47745  -0.47020  -0.46327  -0.45846  -0.45238
 Alpha  occ. eigenvalues --   -0.44620  -0.43550  -0.42977  -0.42482  -0.41948
 Alpha  occ. eigenvalues --   -0.39958  -0.39730  -0.39052  -0.37924  -0.37084
 Alpha  occ. eigenvalues --   -0.35281  -0.34599  -0.31031  -0.28917  -0.28385
 Alpha  occ. eigenvalues --   -0.28205  -0.22116
 Alpha virt. eigenvalues --   -0.05731  -0.03662  -0.02576   0.00792   0.00916
 Alpha virt. eigenvalues --    0.01936   0.02542   0.03493   0.03794   0.04230
 Alpha virt. eigenvalues --    0.04482   0.05031   0.05446   0.05722   0.05842

 Mulliken charges:
               1
     1  C   -0.252843
     2  C    0.040423
     3  C    0.055249
     4  C   -0.619323
     5  C   -0.491000
     6  C    0.000159
     7  C    0.682250
     8  C    0.553779
     9  C   -0.781744
    10  C   -1.337687
    11  C    0.036900
    12  C   -0.539741
    13  C    0.689849
    14  C    1.503230
    15  F   -0.265486
    16  F   -0.275624
    17  F   -0.331393
    18  N   -0.514413
    19  O   -0.685494
    20  O   -0.568662
    21  H    0.242824
    22  H    0.241870
    23  H    0.239077
    24  H    0.260592
    25  H    0.264714
    26  H    0.260745
    27  H    0.247001
    28  H    0.261012
    29  H    0.505414
    30  H    0.578325
 Sum of Mulliken charges =   0.00000

 Dipole moment (field-independent basis, Debye):
    X=             -4.4670    Y=              0.3289    Z=              0.7280  Tot=              4.5379
 Quadrupole moment (field-independent basis, Debye-Ang):
   XX=           -118.3947   YY=            -96.6086   ZZ=           -114.4513
   XY=              2.2139   XZ=             -3.2292   YZ=             -4.3323

 ESP charges:
               1
     1  C   -0.309768
     2  C    0.553785
     3  C   -0.298200
     4  C    0.004055
     5  C   -0.230419
     6  C   -0.027194
     7  C    0.797399
     8  C    0.504894
     9  C   -0.273224
    10  C   -0.025172
    11  C   -0.202486
    12  C   -0.035210
    13  C   -0.242690
    14  C    0.664779
    15  F   -0.245666
    16  F   -0.243001
    17  F   -0.220015
    18  N   -0.890945
    19  O   -0.656307
    20  O   -0.662302
    21  H    0.121878
    22  H    0.112243
    23  H    0.129097
    24  H    0.133000
    25  H    0.158583
    26  H    0.153002
    27  H    0.114846
    28  H    0.144676
    29  H    0.485068
    30  H    0.485294
 Sum of ESP charges =   0.00000

 Normal termination of Gaussian 09 at Fri Oct 20 13:24:23 2017.
