 Gaussian 09, Revision D.01,
 Gaussian 09:  ES64L-G09RevD.01 24-Apr-2013

 ----------------------------------------------------------------------
 #PBE1PBE/6-31+G(d) density=current FormCheck=All SCRF=(PCM,Read,G03Def
 aults) #Pop=ChelpG nosymm
 ----------------------------------------------------------------------

 ----------------------------
 Charge density of molecule 1
 ----------------------------
 Symbolic Z-matrix:
 Charge =  0 Multiplicity = 1

                          Input orientation:
 ---------------------------------------------------------------------
 Center     Atomic      Atomic             Coordinates (Angstroms)
 Number     Number       Type             X           Y           Z
 ---------------------------------------------------------------------
      1          6           0       -1.892400    2.529157   -0.023267
      2          6           0       -1.139647    1.380078   -0.403113
      3          6           0       -0.189793    1.526381   -1.434629
      4          6           0        0.028606    2.754042   -2.034122
      5          6           0       -0.688185    3.889950   -1.642199
      6          6           0       -1.644112    3.761501   -0.651655
      7          6           0       -2.938175    2.437843    1.000031
      8          6           0       -0.629045   -1.005818    0.139887
      9          6           0        0.769145   -1.005818    0.139887
     10          6           0        1.464472   -2.213697    0.139887
     11          6           0        0.792973   -3.432813    0.166828
     12          6           0       -0.600571   -3.429842    0.198092
     13          6           0       -1.306014   -2.234302    0.175263
     14          6           0        2.965603   -2.165091    0.104775
     15          9           0        3.420306   -1.715741   -1.086326
     16          9           0        3.463603   -1.330180    1.039539
     17          9           0        3.526294   -3.369146    0.308289
     18          7           0       -1.387985    0.167720    0.185199
     19          8           0       -3.529669    3.613104    1.277974
     20          8           0       -3.296218    1.413787    1.571152
     21          1           0        0.355284    0.656077   -1.783760
     22          1           0        0.764760    2.824539   -2.831299
     23          1           0       -0.508883    4.850609   -2.114982
     24          1           0       -2.229164    4.620929   -0.342179
     25          1           0        1.314249   -0.067503    0.171245
     26          1           0        1.346834   -4.365335    0.171277
     27          1           0       -1.141931   -4.371474    0.226844
     28          1           0       -2.393302   -2.237068    0.178864
     29          1           0       -2.179927    0.159518    0.825724
     30          1           0       -4.243840    3.456667    1.916424
 ---------------------------------------------------------------------

 SCF Done:  E(RPBE1PBE) =  -1043.20928175     A.U. after   16 cycles

 Alpha  occ. eigenvalues --  -24.83944 -24.83596 -24.83464 -19.28519 -19.23683
 Alpha  occ. eigenvalues --  -14.43879 -10.49748 -10.38660 -10.31077 -10.30343
 Alpha  occ. eigenvalues --  -10.27811 -10.26474 -10.26370 -10.26044 -10.25980
 Alpha  occ. eigenvalues --  -10.25845 -10.25830 -10.25787 -10.24934 -10.24370
 Alpha  occ. eigenvalues --   -1.36004  -1.27178  -1.26684  -1.15311  -1.05974
 Alpha  occ. eigenvalues --   -0.99978  -0.91087  -0.88763  -0.82280  -0.80795
 Alpha  occ. eigenvalues --   -0.79467  -0.76479  -0.73532  -0.69599  -0.66801
 Alpha  occ. eigenvalues --   -0.66321  -0.64001  -0.62595  -0.62035  -0.61010
 Alpha  occ. eigenvalues --   -0.59562  -0.56179  -0.54133  -0.53128  -0.52633
 Alpha  occ. eigenvalues --   -0.51629  -0.49990  -0.49668  -0.49028  -0.48298
 Alpha  occ. eigenvalues --   -0.47754  -0.47101  -0.46152  -0.45836  -0.45508
 Alpha  occ. eigenvalues --   -0.44585  -0.43592  -0.42832  -0.42551  -0.41941
 Alpha  occ. eigenvalues --   -0.39955  -0.39778  -0.39071  -0.37880  -0.37099
 Alpha  occ. eigenvalues --   -0.35244  -0.34545  -0.31082  -0.28805  -0.28422
 Alpha  occ. eigenvalues --   -0.28252  -0.22121
 Alpha virt. eigenvalues --   -0.05749  -0.03534  -0.02817   0.00914   0.00955
 Alpha virt. eigenvalues --    0.01978   0.02469   0.03599   0.03714   0.04279
 Alpha virt. eigenvalues --    0.04466   0.05046   0.05464   0.05588   0.05861

 Mulliken charges:
               1
     1  C   -0.028095
     2  C   -0.320751
     3  C    0.058936
     4  C   -0.597630
     5  C   -0.395153
     6  C    0.050494
     7  C    0.720132
     8  C    0.216928
     9  C    0.950869
    10  C   -1.110731
    11  C   -0.547362
    12  C   -0.330927
    13  C   -0.541351
    14  C    1.380317
    15  F   -0.268433
    16  F   -0.280874
    17  F   -0.330913
    18  N   -0.486876
    19  O   -0.675065
    20  O   -0.566152
    21  H    0.248916
    22  H    0.242898
    23  H    0.239353
    24  H    0.260993
    25  H    0.271453
    26  H    0.259574
    27  H    0.247686
    28  H    0.252145
    29  H    0.506463
    30  H    0.573158
 Sum of Mulliken charges =   0.00000

 Dipole moment (field-independent basis, Debye):
    X=             -3.0093    Y=              0.9368    Z=             -0.6568  Tot=              3.2194
 Quadrupole moment (field-independent basis, Debye-Ang):
   XX=           -116.4146   YY=            -96.9009   ZZ=           -113.9871
   XY=              1.7426   XZ=             -5.3078   YZ=             -0.8542

 ESP charges:
               1
     1  C   -0.310975
     2  C    0.541361
     3  C   -0.265378
     4  C   -0.028423
     5  C   -0.224609
     6  C   -0.019258
     7  C    0.801120
     8  C    0.546265
     9  C   -0.286436
    10  C    0.021545
    11  C   -0.193013
    12  C   -0.038666
    13  C   -0.310340
    14  C    0.596272
    15  F   -0.220960
    16  F   -0.229832
    17  F   -0.213858
    18  N   -0.885114
    19  O   -0.652379
    20  O   -0.662943
    21  H    0.119411
    22  H    0.124265
    23  H    0.130186
    24  H    0.128712
    25  H    0.152209
    26  H    0.140541
    27  H    0.120950
    28  H    0.169758
    29  H    0.468959
    30  H    0.480631
 Sum of ESP charges =   0.00000

 Normal termination of Gaussian 09 at Fri Oct 20 13:36:54 2017.
