 Gaussian 09, Revision D.01,
 Gaussian 09:  ES64L-G09RevD.01 24-Apr-2013

 ----------------------------------------------------------------------
 #PBE1PBE/6-31+G(d) density=current FormCheck=All SCRF=(PCM,Read,G03Def
 aults) #Pop=ChelpG nosymm
 ----------------------------------------------------------------------

 ----------------------------
 Charge density of molecule 1
 ----------------------------
 Symbolic Z-matrix:
 Charge =  0 Multiplicity = 1

                          Input orientation:
 ---------------------------------------------------------------------
 Center     Atomic      Atomic             Coordinates (Angstroms)
 Number     Number       Type             X           Y           Z
 ---------------------------------------------------------------------
      1          6           0       -0.349826    3.900992    0.785959
      2          6           0       -1.285082    2.873463    0.308671
      3          6           0       -2.651383    3.183906    0.217626
      4          6           0       -3.549312    2.334815   -0.405703
      5          6           0       -3.061849    1.176631   -1.016336
      6          6           0       -1.718849    0.842839   -0.947911
      7          6           0       -0.802015    1.653630   -0.252590
      8          6           0        1.146327    0.063760   -0.146615
      9          6           0        2.551711    0.063760   -0.146615
     10          6           0        3.267275   -1.125267   -0.146615
     11          6           0        2.607958   -2.350920   -0.134692
     12          6           0        1.215090   -2.353662   -0.094738
     13          6           0        0.481873   -1.171059   -0.089990
     14          6           0        0.504139   -3.676989   -0.060490
     15          9           0        0.698266   -4.374778   -1.200674
     16          9           0       -0.825951   -3.551142    0.098238
     17          9           0        0.950042   -4.459338    0.943514
     18          7           0        0.515368    1.299545   -0.077539
     19          8           0       -0.948013    5.037371    1.183801
     20          8           0        0.871773    3.808728    0.787317
     21          1           0       -0.276218    5.729658    1.289354
     22          1           0       -2.991859    4.123942    0.638358
     23          1           0       -4.604183    2.586873   -0.453447
     24          1           0       -3.736993    0.526510   -1.567507
     25          1           0       -1.362568   -0.036902   -1.470410
     26          1           0        1.107415    2.087294    0.180664
     27          1           0        3.080577    1.014355   -0.157361
     28          1           0        4.353339   -1.093669   -0.156532
     29          1           0        3.162578   -3.284118   -0.142026
     30          1           0       -0.594708   -1.220037    0.005354
 ---------------------------------------------------------------------

 SCF Done:  E(RPBE1PBE) =  -1043.20561970     A.U. after   16 cycles

 Alpha  occ. eigenvalues --  -24.83867 -24.83451 -24.83380 -19.28656 -19.23897
 Alpha  occ. eigenvalues --  -14.44291 -10.49626 -10.38944 -10.31264 -10.30579
 Alpha  occ. eigenvalues --  -10.27621 -10.26815 -10.26097 -10.26075 -10.26033
 Alpha  occ. eigenvalues --  -10.25808 -10.25584 -10.25548 -10.25242 -10.24688
 Alpha  occ. eigenvalues --   -1.35897  -1.27052  -1.26591  -1.15480  -1.06205
 Alpha  occ. eigenvalues --   -1.00240  -0.91025  -0.88941  -0.82240  -0.80945
 Alpha  occ. eigenvalues --   -0.79485  -0.76696  -0.73379  -0.69788  -0.66911
 Alpha  occ. eigenvalues --   -0.66352  -0.64079  -0.62554  -0.61924  -0.60977
 Alpha  occ. eigenvalues --   -0.59668  -0.56282  -0.54615  -0.53013  -0.52499
 Alpha  occ. eigenvalues --   -0.51647  -0.49868  -0.49598  -0.48923  -0.48617
 Alpha  occ. eigenvalues --   -0.47588  -0.47437  -0.46216  -0.45777  -0.45260
 Alpha  occ. eigenvalues --   -0.44314  -0.43500  -0.43358  -0.42710  -0.42135
 Alpha  occ. eigenvalues --   -0.40041  -0.39730  -0.39032  -0.37802  -0.37145
 Alpha  occ. eigenvalues --   -0.35562  -0.34929  -0.31158  -0.28738  -0.28453
 Alpha  occ. eigenvalues --   -0.28375  -0.21940
 Alpha virt. eigenvalues --   -0.06147  -0.03328  -0.02634   0.00850   0.01133
 Alpha virt. eigenvalues --    0.01963   0.02372   0.03577   0.03725   0.04180
 Alpha virt. eigenvalues --    0.04489   0.04901   0.05604   0.05639   0.05997

 Mulliken charges:
               1
     1  C    0.812840
     2  C    0.053263
     3  C   -0.640117
     4  C   -0.145428
     5  C   -0.716666
     6  C    0.581514
     7  C   -0.195991
     8  C    0.148337
     9  C   -0.654525
    10  C   -0.570144
    11  C    0.225236
    12  C   -1.218231
    13  C    0.426819
    14  C    1.402298
    15  F   -0.270932
    16  F   -0.335624
    17  F   -0.277150
    18  N   -0.479363
    19  O   -0.662284
    20  O   -0.547277
    21  H    0.567121
    22  H    0.264355
    23  H    0.240789
    24  H    0.244358
    25  H    0.246898
    26  H    0.496314
    27  H    0.245880
    28  H    0.246953
    29  H    0.258220
    30  H    0.252536
 Sum of Mulliken charges =   0.00000

 Dipole moment (field-independent basis, Debye):
    X=             -0.3291    Y=              3.8688    Z=             -0.5536  Tot=              3.9220
 Quadrupole moment (field-independent basis, Debye-Ang):
   XX=            -97.9633   YY=           -111.5772   ZZ=           -117.6862
   XY=             -4.9343   XZ=              1.8697   YZ=              3.1998

 ESP charges:
               1
     1  C    0.748899
     2  C   -0.211421
     3  C   -0.075132
     4  C   -0.190181
     5  C   -0.044725
     6  C   -0.226698
     7  C    0.443564
     8  C    0.524527
     9  C   -0.333997
    10  C    0.000690
    11  C   -0.232584
    12  C   -0.021338
    13  C   -0.264033
    14  C    0.686536
    15  F   -0.249734
    16  F   -0.230973
    17  F   -0.250210
    18  N   -0.814398
    19  O   -0.639484
    20  O   -0.637845
    21  H    0.477741
    22  H    0.141790
    23  H    0.126275
    24  H    0.127888
    25  H    0.114083
    26  H    0.447131
    27  H    0.170340
    28  H    0.110248
    29  H    0.155083
    30  H    0.147958
 Sum of ESP charges =   0.00000

 Normal termination of Gaussian 09 at Fri Sep 29 16:08:54 2017.
